# Residuals     
# Time          	p               	Ux              	Uy              
0               	N/A	N/A
0.0005          	1.00000000e+00	1.00000000e+00	1.00000000e+00
0.001           	8.49209088e-03	5.11369283e-01	2.18237206e-01
0.0015          	1.28105870e-01	6.34693755e-02	6.48230073e-02
0.002           	2.54061486e-02	6.41726472e-01	1.14864284e-01
0.0025          	1.09557055e-01	3.10983852e-02	2.54154296e-02
0.003           	4.59361063e-02	5.29569938e-02	1.78594259e-02
0.0035          	4.04052597e-02	4.08382215e-02	1.41870845e-02
0.004           	3.32596403e-02	4.26836993e-02	1.29049353e-02
0.0045          	3.12016185e-02	3.27429825e-02	1.12053716e-02
0.005           	2.65451796e-02	3.42205177e-02	1.01628587e-02
0.0055          	2.52320697e-02	2.64692128e-02	9.07315868e-03
0.006           	2.17604331e-02	2.74076891e-02	8.18819038e-03
0.0065          	2.06630107e-02	2.14148845e-02	7.45992455e-03
0.007           	1.78504805e-02	2.19988078e-02	6.69814353e-03
0.0075          	1.70924984e-02	1.73143056e-02	6.18801800e-03
0.008           	1.47323572e-02	1.77024553e-02	5.54455673e-03
0.0085          	1.42908557e-02	1.39911993e-02	5.18199437e-03
0.009           	1.24383471e-02	1.42794023e-02	4.64432379e-03
0.0095          	1.21132150e-02	1.13012296e-02	4.38927801e-03
0.01            	1.07580882e-02	1.15437298e-02	3.94469497e-03
0.0105          	1.05370979e-02	9.12741346e-03	3.77620348e-03
0.011           	9.39971004e-03	9.35349150e-03	3.40721329e-03
0.0115          	9.33123363e-03	7.37362144e-03	3.30284533e-03
0.012           	8.52128263e-03	7.59721968e-03	3.00411503e-03
0.0125          	8.69667570e-03	5.98354964e-03	2.94631268e-03
0.013           	8.01154665e-03	6.18654364e-03	2.70021352e-03
0.0135          	8.08551366e-03	4.91791965e-03	2.67910809e-03
0.014           	7.77032862e-03	5.05270489e-03	2.47685384e-03
0.0145          	7.89909876e-03	4.05990125e-03	2.47950403e-03
0.015           	7.49185789e-03	4.13994219e-03	2.30732634e-03
0.0155          	7.75272659e-03	3.36936227e-03	2.32997135e-03
0.016           	7.27231307e-03	3.40605308e-03	2.18524382e-03
0.0165          	7.34631979e-03	2.81297216e-03	2.21091872e-03
0.017           	7.14141766e-03	2.81490797e-03	2.09223014e-03
0.0175          	7.19194211e-03	2.36592948e-03	2.11997343e-03
0.018           	7.28398755e-03	2.34009816e-03	2.02083749e-03
0.0185          	7.27193855e-03	2.02953805e-03	2.04609576e-03
0.019           	7.05239983e-03	1.95815602e-03	1.96433006e-03
0.0195          	6.93951302e-03	1.76375778e-03	1.98664673e-03
0.02            	6.81709891e-03	1.65111092e-03	1.91651144e-03
0.0205          	6.85612311e-03	1.54926479e-03	1.93436333e-03
0.021           	6.83823191e-03	1.40433270e-03	1.87609703e-03
0.0215          	6.98032652e-03	1.37583445e-03	1.89078341e-03
0.022           	6.83096126e-03	1.20570760e-03	1.84064981e-03
0.0225          	6.88856917e-03	1.23533052e-03	1.85198201e-03
0.023           	6.59779627e-03	1.04599320e-03	1.80801259e-03
0.0235          	6.59710068e-03	1.12124803e-03	1.81363456e-03
0.024           	6.74397748e-03	9.17739263e-04	1.77832440e-03
0.0245          	6.30442545e-03	1.02856652e-03	1.78108651e-03
0.025           	6.39044587e-03	8.13803685e-04	1.75042495e-03
0.0255          	6.65114025e-03	9.53041045e-04	1.75299218e-03
0.026           	6.49852288e-03	7.29810034e-04	1.72512798e-03
0.0265          	6.30496331e-03	8.90703588e-04	1.72450782e-03
0.027           	6.16180163e-03	6.61705019e-04	1.69884974e-03
0.0275          	5.82873158e-03	8.39426195e-04	1.69757048e-03
0.028           	5.84810657e-03	6.07483233e-04	1.67650076e-03
0.0285          	5.73441369e-03	7.97283462e-04	1.67466124e-03
0.029           	5.76006223e-03	5.65141031e-04	1.65603430e-03
0.0295          	5.73378097e-03	7.63665808e-04	1.65339209e-03
0.03            	5.70352868e-03	5.65043317e-04	1.63532919e-03
0.0305          	5.22057278e-03	7.36416401e-04	1.62951238e-03
0.031           	5.04789679e-03	5.74037600e-04	1.61417272e-03
0.0315          	5.39450759e-03	7.13826323e-04	1.60951766e-03
0.032           	5.59075011e-03	5.80787420e-04	1.59461673e-03
0.0325          	5.47430668e-03	6.94368204e-04	1.59028836e-03
0.033           	5.38921146e-03	5.85845900e-04	1.57745506e-03
0.0335          	5.43529774e-03	6.77817735e-04	1.57189527e-03
0.034           	5.15607306e-03	5.89431522e-04	1.56059204e-03
0.0345          	5.01938210e-03	6.63205320e-04	1.55443602e-03
0.035           	5.12860836e-03	5.91457282e-04	1.54474153e-03
0.0355          	5.16193491e-03	6.50276746e-04	1.53669899e-03
0.036           	4.98621444e-03	5.91573118e-04	1.52661944e-03
0.0365          	5.03893910e-03	6.38879562e-04	1.51975235e-03
0.037           	4.61686311e-03	5.91139229e-04	1.51299074e-03
0.0375          	4.82091017e-03	6.28897450e-04	1.50661981e-03
0.038           	4.68577106e-03	5.89541628e-04	1.49781935e-03
0.0385          	4.47553011e-03	6.19667492e-04	1.49173278e-03
0.039           	4.42657110e-03	5.87261853e-04	1.48452998e-03
0.0395          	4.26294854e-03	6.10843202e-04	1.47777265e-03
0.04            	3.94187980e-03	5.84224404e-04	1.46915919e-03
0.0405          	3.97992460e-03	6.02947162e-04	1.46287214e-03
0.041           	4.53566569e-03	5.80733654e-04	1.45460909e-03
0.0415          	4.85219203e-03	5.95287341e-04	1.44875495e-03
0.042           	4.79486191e-03	5.76920587e-04	1.44010964e-03
0.0425          	4.69630560e-03	5.88796206e-04	1.43788101e-03
0.043           	3.85378877e-03	5.73247420e-04	1.43083876e-03
0.0435          	3.61407176e-03	5.81989739e-04	1.42511639e-03
0.044           	3.62384062e-03	5.69194853e-04	1.41806952e-03
0.0445          	3.51213163e-03	5.75568092e-04	1.41142607e-03
0.045           	3.46975037e-03	5.64861699e-04	1.40458118e-03
0.0455          	3.72683342e-03	5.69704359e-04	1.39922256e-03
0.046           	3.82798567e-03	5.60535958e-04	1.39287444e-03
0.0465          	3.57107784e-03	5.64180756e-04	1.38882584e-03
0.047           	3.85122146e-03	5.56454432e-04	1.38268691e-03
0.0475          	3.48319605e-03	5.58726908e-04	1.37710976e-03
0.048           	3.39038743e-03	5.52518168e-04	1.37226088e-03
0.0485          	3.19597233e-03	5.53557359e-04	1.36564785e-03
0.049           	3.26684091e-03	5.48060654e-04	1.35941104e-03
0.0495          	3.25224520e-03	5.48635850e-04	1.35450470e-03
0.05            	3.35806396e-03	5.43968149e-04	1.34997825e-03
0.0505          	3.32043899e-03	5.43999976e-04	1.34482646e-03
0.051           	3.43456631e-03	5.39851378e-04	1.33976392e-03
0.0515          	3.41773723e-03	5.39310118e-04	1.33412255e-03
0.052           	3.65333516e-03	5.35486802e-04	1.32833635e-03
0.0525          	3.52145143e-03	5.34953489e-04	1.32378136e-03
0.053           	3.38068657e-03	5.31706580e-04	1.31975139e-03
0.0535          	3.37144863e-03	5.30689127e-04	1.31542043e-03
0.054           	3.47078886e-03	5.27657181e-04	1.31042825e-03
0.0545          	3.57163378e-03	5.26518939e-04	1.30516297e-03
0.055           	3.02583520e-03	5.23450065e-04	1.29933492e-03
0.0555          	3.14284279e-03	5.22184643e-04	1.29535369e-03
0.056           	2.86994276e-03	5.19430661e-04	1.29145995e-03
0.0565          	2.89727926e-03	5.18094651e-04	1.28694292e-03
0.057           	2.67196636e-03	5.15593335e-04	1.28243425e-03
0.0575          	2.72995763e-03	5.14191303e-04	1.27777057e-03
0.058           	2.78087167e-03	5.11891073e-04	1.27378654e-03
0.0585          	2.57942181e-03	5.10328558e-04	1.26876469e-03
0.059           	2.66666968e-03	5.08108242e-04	1.26443477e-03
0.0595          	2.70447463e-03	5.06621532e-04	1.26066422e-03
0.06            	2.84058836e-03	5.04519816e-04	1.25657728e-03
0.0605          	2.90555764e-03	5.02978237e-04	1.25265534e-03
0.061           	2.98572820e-03	5.01073854e-04	1.24950773e-03
0.0615          	2.95163969e-03	4.99295725e-04	1.24420838e-03
0.062           	2.90605289e-03	4.97177014e-04	1.23973149e-03
0.0625          	2.82912302e-03	4.95562121e-04	1.23557010e-03
0.063           	2.77930702e-03	4.93608738e-04	1.23187615e-03
