# Probe 0 (0.075 0 0)
# Probe 1 (0.0738606 0.0130236 0)
# Probe 2 (0.0704769 0.0256515 0)
# Probe 3 (0.0649519 0.0375 0)
# Probe 4 (0.0574533 0.0482091 0)
# Probe 5 (0.0482091 0.0574533 0)
# Probe 6 (0.0375 0.0649519 0)
# Probe 7 (0.0256515 0.0704769 0)
# Probe 8 (0.0130236 0.0738606 0)
# Probe 9 (0 0.075 0)
# Probe 10 (-0.0130236 0.0738606 0)
# Probe 11 (-0.0256515 0.0704769 0)
# Probe 12 (-0.0375 0.0649519 0)
# Probe 13 (-0.0482091 0.0574533 0)
# Probe 14 (-0.0574533 0.0482091 0)
# Probe 15 (-0.0649519 0.0375 0)
# Probe 16 (-0.0704769 0.0256515 0)
# Probe 17 (-0.0738606 0.0130236 0)
# Probe 18 (-0.075 0 0)
# Probe 19 (-0.0738606 -0.0130236 0)
# Probe 20 (-0.0704769 -0.0256515 0)
# Probe 21 (-0.0649519 -0.0375 0)
# Probe 22 (-0.0574533 -0.0482091 0)
# Probe 23 (-0.0482091 -0.0574533 0)
# Probe 24 (-0.0375 -0.0649519 0)
# Probe 25 (-0.0256515 -0.0704769 0)
# Probe 26 (-0.0130236 -0.0738606 0)
# Probe 27 (0 -0.075 0)
# Probe 28 (0.0130236 -0.0738606 0)
# Probe 29 (0.0256515 -0.0704769 0)
# Probe 30 (0.0375 -0.0649519 0)
# Probe 31 (0.0482091 -0.0574533 0)
# Probe 32 (0.0574533 -0.0482091 0)
# Probe 33 (0.0649519 -0.0375 0)
# Probe 34 (0.0704769 -0.0256515 0)
# Probe 35 (0.0738606 -0.0130236 0)
# Probe 36 (0.1 0 0)
# Probe 37 (0.0984808 0.0173648 0)
# Probe 38 (0.0939693 0.034202 0)
# Probe 39 (0.0866025 0.05 0)
# Probe 40 (0.0766044 0.0642788 0)
# Probe 41 (0.0642788 0.0766044 0)
# Probe 42 (0.05 0.0866025 0)
# Probe 43 (0.034202 0.0939693 0)
# Probe 44 (0.0173648 0.0984808 0)
# Probe 45 (0 0.1 0)
# Probe 46 (-0.0173648 0.0984808 0)
# Probe 47 (-0.034202 0.0939693 0)
# Probe 48 (-0.05 0.0866025 0)
# Probe 49 (-0.0642788 0.0766044 0)
# Probe 50 (-0.0766044 0.0642788 0)
# Probe 51 (-0.0866025 0.05 0)
# Probe 52 (-0.0939693 0.034202 0)
# Probe 53 (-0.0984808 0.0173648 0)
# Probe 54 (-0.1 0 0)
# Probe 55 (-0.0984808 -0.0173648 0)
# Probe 56 (-0.0939693 -0.034202 0)
# Probe 57 (-0.0866025 -0.05 0)
# Probe 58 (-0.0766044 -0.0642788 0)
# Probe 59 (-0.0642788 -0.0766044 0)
# Probe 60 (-0.05 -0.0866025 0)
# Probe 61 (-0.034202 -0.0939693 0)
# Probe 62 (-0.0173648 -0.0984808 0)
# Probe 63 (0 -0.1 0)
# Probe 64 (0.0173648 -0.0984808 0)
# Probe 65 (0.034202 -0.0939693 0)
# Probe 66 (0.05 -0.0866025 0)
# Probe 67 (0.0642788 -0.0766044 0)
# Probe 68 (0.0766044 -0.0642788 0)
# Probe 69 (0.0866025 -0.05 0)
# Probe 70 (0.0939693 -0.034202 0)
# Probe 71 (0.0984808 -0.0173648 0)
# Probe 72 (-0.025 -0.15 0)
# Probe 73 (0 -0.15 0)
# Probe 74 (0.025 -0.15 0)
# Probe 75 (0.05 -0.15 0)
# Probe 76 (0.075 -0.15 0)
# Probe 77 (0.1 -0.15 0)
# Probe 78 (-0.025 -0.1 0)
# Probe 79 (0 -0.1 0)
# Probe 80 (0.025 -0.1 0)
# Probe 81 (0.05 -0.1 0)
# Probe 82 (0.075 -0.1 0)
# Probe 83 (0.1 -0.1 0)
# Probe 84 (0.075 -0.05 0)
# Probe 85 (0.1 -0.05 0)
# Probe 86 (0.075 0 0)
# Probe 87 (0.1 0 0)
# Probe 88 (0.075 0.05 0)
# Probe 89 (0.1 0.05 0)
# Probe 90 (-0.025 0.1 0)
# Probe 91 (0 0.1 0)
# Probe 92 (0.025 0.1 0)
# Probe 93 (0.05 0.1 0)
# Probe 94 (0.075 0.1 0)
# Probe 95 (0.1 0.1 0)
# Probe 96 (-0.025 0.15 0)
# Probe 97 (0 0.15 0)
# Probe 98 (0.025 0.15 0)
# Probe 99 (0.05 0.15 0)
# Probe 100 (0.075 0.15 0)
# Probe 101 (0.1 0.15 0)
# Probe 102 (0.15 -0.15 0)
# Probe 103 (0.2 -0.15 0)
# Probe 104 (0.25 -0.15 0)
# Probe 105 (0.3 -0.15 0)
# Probe 106 (0.35 -0.15 0)
# Probe 107 (0.4 -0.15 0)
# Probe 108 (0.45 -0.15 0)
# Probe 109 (0.15 -0.1 0)
# Probe 110 (0.2 -0.1 0)
# Probe 111 (0.25 -0.1 0)
# Probe 112 (0.3 -0.1 0)
# Probe 113 (0.35 -0.1 0)
# Probe 114 (0.4 -0.1 0)
# Probe 115 (0.45 -0.1 0)
# Probe 116 (0.15 -0.05 0)
# Probe 117 (0.2 -0.05 0)
# Probe 118 (0.25 -0.05 0)
# Probe 119 (0.3 -0.05 0)
# Probe 120 (0.35 -0.05 0)
# Probe 121 (0.4 -0.05 0)
# Probe 122 (0.45 -0.05 0)
# Probe 123 (0.15 0 0)
# Probe 124 (0.2 0 0)
# Probe 125 (0.25 0 0)
# Probe 126 (0.3 0 0)
# Probe 127 (0.35 0 0)
# Probe 128 (0.4 0 0)
# Probe 129 (0.45 0 0)
# Probe 130 (0.15 0.05 0)
# Probe 131 (0.2 0.05 0)
# Probe 132 (0.25 0.05 0)
# Probe 133 (0.3 0.05 0)
# Probe 134 (0.35 0.05 0)
# Probe 135 (0.4 0.05 0)
# Probe 136 (0.45 0.05 0)
# Probe 137 (0.15 0.1 0)
# Probe 138 (0.2 0.1 0)
# Probe 139 (0.25 0.1 0)
# Probe 140 (0.3 0.1 0)
# Probe 141 (0.35 0.1 0)
# Probe 142 (0.4 0.1 0)
# Probe 143 (0.45 0.1 0)
# Probe 144 (0.15 0.15 0)
# Probe 145 (0.2 0.15 0)
# Probe 146 (0.25 0.15 0)
# Probe 147 (0.3 0.15 0)
# Probe 148 (0.35 0.15 0)
# Probe 149 (0.4 0.15 0)
# Probe 150 (0.45 0.15 0)
# Time          0               1               2               3               4               5               6               7               8               9               10              11              12              13              14              15              16              17              18              19              20              21              22              23              24              25              26              27              28              29              30              31              32              33              34              35              36              37              38              39              40              41              42              43              44              45              46              47              48              49              50              51              52              53              54              55              56              57              58              59              60              61              62              63              64              65              66              67              68              69              70              71              72              73              74              75              76              77              78              79              80              81              82              83              84              85              86              87              88              89              90              91              92              93              94              95              96              97              98              99              100             101             102             103             104             105             106             107             108             109             110             111             112             113             114             115             116             117             118             119             120             121             122             123             124             125             126             127             128             129             130             131             132             133             134             135             136             137             138             139             140             141             142             143             144             145             146             147             148             149             150            
0               0               0               0               0               0               0               0               0               0               0               0               0               0               0               0               0               0               0               0               0               0               0               0               0               0               0               0               0               0               0               0               0               0               0               0               0               0               0               0               0               0               0               0               0               0               0               0               0               0               0               0               0               0               0               0               0               0               0               0               0               0               0               0               0               0               0               0               0               0               0               0               0               0               0               0               0               0               0               0               0               0               0               0               0               0               0               0               0               0               0               0               0               0               0               0               0               0               0               0               0               0               0               0               0               0               0               0               0               0               0               0               0               0               0               0               0               0               0               0               0               0               0               0               0               0               0               0               0               0               0               0               0               0               0               0               0               0               0               0               0               0               0               0               0               0               0               0               0               0               0               0              
0.0005          190.91898       191.12229       191.65099       192.77505       194.46556       196.3793        198.57784       201.84867       203.88858       205.84651       206.60239       206.0924        205.44484       204.94874       204.58292       204.3136        204.19369       204.14063       204.12558       204.18609       204.2792        204.47293       204.78425       205.17687       205.77298       206.47472       206.70366       206.5883        204.5895        201.939         199.05044       196.41815       194.36996       193.01817       191.81095       191.14378       189.12206       189.45159       190.07699       191.09356       192.22407       194.44428       196.08801       198.32648       200.49246       201.91583       202.87577       203.63029       203.68258       203.75744       203.89331       203.82465       203.80379       203.83504       203.83831       203.87357       203.95202       204.00759       204.05931       204.00682       203.88397       203.86304       203.11394       202.08952       200.46887       198.33348       196.70525       194.50624       192.27585       191.19652       190.03054       189.20759       200.43387       198.95793       197.51717       195.17729       192.4805        190.58938       203.51169       202.08952       199.5733        196.44355       193.51157       190.45626       192.26485       189.55775       190.91898       189.12206       192.28054       189.73705       203.12064       201.91583       199.19868       195.76725       193.04279       190.17486       200.32102       198.60348       197.49271       194.79841       192.53256       190.29125       185.59711       179.48933       175.59473       169.72065       165.77773       159.77079       155.77008       185.19768       179.99235       174.48451       170.60807       164.90908       160.66299       154.66278       185.01182       179.80998       174.60615       169.45853       164.96713       159.37577       155.51649       184.72269       180.21801       174.22866       169.18967       165.64247       160.13556       154.47432       184.36847       179.26249       175.167         170.13798       164.69733       159.10654       155.41673       185.38919       180.46504       175.31406       169.72621       164.75728       159.96062       155.18318       184.18005       179.44536       174.56958       169.70201       164.781         159.87522       154.96298      
0.001           17.57369        17.61148        17.541872       17.374925       17.006963       16.641026       16.206719       15.531221       15.119168       14.677199       14.653533       14.952473       15.207755       15.365703       15.464032       15.536317       15.580445       15.61142        15.634377       15.625805       15.598706       15.555101       15.483156       15.402032       15.256877       15.047313       14.843458       14.733737       15.095745       15.635542       16.231013       16.703402       17.128436       17.410044       17.53904        17.562448       17.134261       17.1479         17.084527       16.96504        16.823207       16.513728       16.246094       15.895741       15.611606       15.433046       15.324444       15.310131       15.39238        15.453996       15.49807        15.537031       15.562652       15.592037       15.59803        15.597134       15.586922       15.565938       15.522711       15.485          15.447265       15.387642       15.43768        15.500705       15.685467       15.927955       16.229748       16.506308       16.817714       16.962138       17.097685       17.073185       15.638614       15.722048       15.778071       15.957228       16.022334       16.120644       15.382131       15.500705       15.783354       16.09984        16.299403       16.382507       17.066219       16.833122       17.57369        17.134261       17.062855       16.84216        15.325733       15.433046       15.759655       16.147519       16.322978       16.335006       15.584974       15.704293       15.742404       15.946478       16.016336       16.087718       16.021867       15.790467       15.497777       15.025004       14.701161       14.196186       13.842371       16.202749       15.873373       15.452321       15.124382       14.63165        14.302549       13.748346       16.417517       15.929235       15.498411       15.053157       14.655179       14.17458        13.824371       16.521634       16.027625       15.477261       15.031556       14.716058       14.226721       13.721713       16.355879       15.871735       15.545514       15.110142       14.626754       14.113962       13.774519       16.219924       15.889616       15.486807       15.08203        14.621631       14.183907       13.747849       16.00285        15.698415       15.412113       15.021056       14.607156       14.175533       13.745692      
0.0015          -85.778929      -85.877288      -86.051799      -86.396164      -86.822783      -87.341938      -87.91789       -88.705847      -89.168459      -89.616992      -89.947877      -90.110435      -90.088003      -90.026389      -89.944865      -89.88655       -89.866875      -89.867098      -89.876048      -89.896076      -89.917048      -89.965691      -90.050531      -90.146234      -90.252883      -90.309344      -90.16683       -89.920725      -89.426269      -88.842124      -88.118751      -87.389416      -86.863254      -86.493181      -86.10503       -85.848156      -84.759617      -84.911244      -85.167247      -85.450052      -85.826615      -86.489983      -86.964044      -87.605295      -88.255698      -88.66241       -89.036113      -89.361345      -89.471542      -89.541175      -89.665597      -89.670721      -89.692293      -89.715655      -89.724218      -89.737928      -89.762558      -89.764139      -89.751047      -89.697515      -89.644739      -89.581994      -89.214194      -88.82243       -88.29659       -87.627928      -87.196071      -86.502782      -85.812926      -85.478643      -85.105406      -84.761647      -88.290306      -87.792269      -87.277714      -86.331035      -85.472426      -84.621616      -89.400834      -88.82243       -88.016004      -86.96561       -85.982783      -84.830328      -85.993841      -84.754068      -85.778929      -84.759617      -85.995256      -84.822179      -89.153141      -88.66241       -87.854853      -86.764344      -85.801911      -84.721224      -88.225766      -87.596018      -87.244997      -86.269672      -85.406202      -84.478781      -82.68134       -80.089436      -78.403216      -75.814077      -74.074724      -71.40538       -69.62096       -82.636987      -80.37616       -77.944292      -76.213601      -73.779279      -71.80073       -69.127408      -82.736052      -80.328275      -78.027424      -75.708994      -73.721131      -71.232968      -69.508189      -82.631207      -80.550102      -77.854623      -75.603653      -74.02019       -71.563612      -69.037873      -82.392989      -80.201696      -78.26004       -76.026134      -73.596065      -71.091802      -69.439477      -82.702285      -80.555697      -78.29204       -75.781384      -73.61651       -71.471708      -69.347873      -82.07093       -80.195684      -77.95001       -75.803741      -73.620686      -71.43603       -69.252846     
0.002           5.727214        5.7325966       5.7705679       5.8478426       5.9735859       6.1120821       6.2719798       6.4887577       6.6266839       6.7841393       6.8664676       6.8787521       6.8513936       6.8161063       6.7840761       6.7573883       6.7438867       6.7366579       6.7331336       6.7383484       6.748308        6.7671342       6.797959        6.827774        6.8683794       6.8983992       6.8821705       6.8271498       6.6712401       6.5042966       6.3043983       6.1146404       5.9588676       5.8535361       5.7745208       5.7372821       5.7093307       5.7252511       5.7707224       5.8313491       5.9114393       6.0573098       6.1715576       6.3241344       6.4661615       6.5628369       6.6487945       6.7075541       6.7168108       6.7215469       6.7322646       6.7271529       6.7233208       6.7212183       6.7210574       6.7235104       6.7293818       6.7342087       6.7404056       6.741582        6.7382897       6.733249        6.6685882       6.5822732       6.4683662       6.3376074       6.2177148       6.0725876       5.9152348       5.8391251       5.764378        5.7284376       6.5201868       6.4324405       6.3618193       6.2077574       6.0764882       5.9938362       6.6972254       6.5822732       6.4134705       6.2232719       6.0687107       5.9164059       5.8744087       5.7876293       5.727214        5.7093307       5.8736285       5.7897212       6.67149         6.5628369       6.3880548       6.1737962       6.0259302       5.9077621       6.5226397       6.4078781       6.3441421       6.1843651       6.0673769       5.9418117       5.7400661       5.5033722       5.380412        5.1932347       5.070508        4.8811761       4.758518        5.7040609       5.5208826       5.3371696       5.2141389       5.0544022       4.8923167       4.72202         5.6583872       5.4913073       5.3299002       5.1661582       5.0350187       4.861907        4.7469459       5.6120103       5.4915951       5.313363        5.1606034       5.0537889       4.8877244       4.7169958       5.6255525       5.4791517       5.3403046       5.1923634       5.025681        4.8589756       4.7494076       5.7070703       5.5270373       5.3608536       5.167582        5.0291526       4.8866122       4.7474731       5.6777093       5.5229364       5.3387981       5.1888182       5.0343995       4.8852705       4.7365405      
0.0025          -9.811569       -9.8230918      -9.8500322      -9.9081161      -9.9928161      -10.088835      -10.188727      -10.322781      -10.383035      -10.455825      -10.51706       -10.549513      -10.537931      -10.517422      -10.497532      -10.482568      -10.475174      -10.472106      -10.471053      -10.474425      -10.479649      -10.490876      -10.508512      -10.530163      -10.553788      -10.566695      -10.53094       -10.489945      -10.41851       -10.332458      -10.218554      -10.09164       -9.9911722      -9.922505       -9.8597144      -9.824634       -9.7143744      -9.7304484      -9.7583802      -9.8102609      -9.862949       -9.9688531      -10.04311       -10.140428      -10.237014      -10.306944      -10.358992      -10.41007       -10.425481      -10.437499      -10.450952      -10.448258      -10.447713      -10.45051       -10.450622      -10.452421      -10.456821      -10.459158      -10.459149      -10.450045      -10.434756      -10.422686      -10.375416      -10.316148      -10.239839      -10.144399      -10.076927      -9.9740706      -9.8710057      -9.8170973      -9.7589692      -9.7156154      -10.247622      -10.170363      -10.095773      -9.9807605      -9.8496343      -9.7660702      -10.395988      -10.316148      -10.199796      -10.056813      -9.9129154      -9.7622947      -9.8745348      -9.7289804      -9.811569       -9.7143744      -9.8738794      -9.7361969      -10.377348      -10.306944      -10.178115      -10.021817      -9.889416       -9.7421885      -10.240824      -10.151767      -10.095537      -9.9629211      -9.8526271      -9.7446397      -9.5081958      -9.205671       -9.0048859      -8.7029586      -8.5004667      -8.1927575      -7.9876422      -9.4965023      -9.2301591      -8.9484447      -8.7526578      -8.4519653      -8.2382978      -7.9305205      -9.4881407      -9.2215762      -8.9526773      -8.689635       -8.4583933      -8.1716861      -7.9737842      -9.4796357      -9.2443085      -8.9346829      -8.6754674      -8.4932166      -8.2103917      -7.9198498      -9.4561426      -9.1905206      -8.9840988      -8.7236832      -8.4445906      -8.1576311      -7.968688       -9.503097       -9.2519207      -8.9891484      -8.7048951      -8.4473895      -8.2006894      -7.9543474      -9.4384922      -9.192207       -8.9482296      -8.6984346      -8.4468391      -8.1956051      -7.943451      
0.003           8.3384998       8.3460411       8.371217        8.4250386       8.5059103       8.5971291       8.7057776       8.8688185       8.9932088       9.1138798       9.1457372       9.097773        9.0599979       9.0339591       9.0159041       9.0023629       8.9963575       8.9935495       8.9925489       8.9954702       9.0004127       9.0098692       9.0252453       9.0439179       9.0754155       9.1165058       9.1479691       9.1524388       9.0300922       8.8777572       8.7273833       8.6006578       8.5010683       8.4346278       8.3780804       8.3480324       8.2729232       8.2870742       8.3187348       8.3661688       8.4218323       8.5288617       8.6112225       8.7255054       8.8363255       8.9085722       8.9560393       8.9879847       8.9858143       8.9855295       8.9887723       8.9847515       8.9831882       8.9835771       8.9836285       8.9854257       8.9891819       8.992612        8.9969088       8.9976727       8.9964703       8.9999564       8.9664331       8.9181727       8.8352036       8.7273304       8.6411391       8.5337808       8.4235145       8.3714081       8.3151032       8.2793248       8.8392508       8.7707182       8.7035157       8.5915496       8.4640413       8.3756366       8.9855687       8.9181727       8.7900132       8.6368374       8.4999554       8.3598028       8.41492         8.3031591       8.3384998       8.2729232       8.4152334       8.3105385       8.9661396       8.9085722       8.7720884       8.602487        8.4751526       8.3478087       8.8350075       8.7528504       8.7004248       8.5722648       8.4654374       8.3600501       8.1486834       7.874858        7.7034272       7.4455188       7.2728321       7.0090748       6.8336767       8.1253423       7.8958927       7.65369         7.4827527       7.2369884       7.0471301       6.7849811       8.1115374       7.8853566       7.6588338       7.4326331       7.23644         6.9913329       6.8223577       8.0933055       7.9011037       7.6411978       7.4210321       7.2658442       7.0247461       6.7767779       8.0815838       7.8631452       7.6818349       7.4628847       7.2245096       6.9796386       6.8177258       8.1342878       7.91603         7.6896328       7.4443636       7.2272249       7.0172949       6.8086482       8.083812        7.8772851       7.6585737       7.4446188       7.2286404       7.0136851       6.7985353      
0.0035          -7.9903927      -7.9992221      -8.0209266      -8.0679376      -8.1380565      -8.2176477      -8.30335        -8.4232293      -8.4800496      -8.5403099      -8.5832286      -8.5939578      -8.5768126      -8.5586701      -8.5432601      -8.5316684      -8.5261796      -8.5237494      -8.5229989      -8.5255831      -8.5295666      -8.5382394      -8.5516886      -8.5685635      -8.5892557      -8.6068639      -8.5890928      -8.5668487      -8.5068505      -8.4276398      -8.3253525      -8.2190008      -8.1352383      -8.0788921      -8.0285485      -8.000531       -7.9113471      -7.9251097      -7.949237       -7.991687       -8.0363633      -8.1245182      -8.1869399      -8.2700469      -8.3504855      -8.4057133      -8.4459915      -8.4834315      -8.4919926      -8.4993625      -8.5083554      -8.5059992      -8.5054129      -8.5074361      -8.5074756      -8.5088395      -8.5122083      -8.513975       -8.5145018      -8.508937       -8.498744       -8.4920308      -8.4570144      -8.4117486      -8.3500998      -8.2701044      -8.2117354      -8.1262953      -8.0393262      -7.9960458      -7.9488349      -7.9140522      -8.3502886      -8.2889203      -8.2295743      -8.1377149      -8.0302886      -7.9562681      -8.4732653      -8.4117486      -8.316564       -8.1962724      -8.0786604      -7.9544747      -8.0426111      -7.9256546      -7.9903927      -7.9113471      -8.0429516      -7.9326698      -8.458947       -8.4057133      -8.3013842      -8.1704252      -8.0611967      -7.9420676      -8.3451099      -8.2754568      -8.2302431      -8.1231798      -8.0326691      -7.9439367      -7.7511153      -7.4993962      -7.3370238      -7.0918174      -6.9269381      -6.6762832      -6.5088892      -7.7372094      -7.5206504      -7.2910624      -7.1297947      -6.8884251      -6.7136588      -6.4625362      -7.7315237      -7.5140614      -7.295879       -7.0814344      -6.893198       -6.6596119      -6.4981386      -7.7227926      -7.5321736      -7.2807598      -7.0698878      -6.9214867      -6.6911466      -6.4544156      -7.7060998      -7.4894711      -7.320158       -7.1092077      -6.8818548      -6.6479896      -6.4939085      -7.7444992      -7.5404874      -7.3254482      -7.0924357      -6.8842162      -6.6834781      -6.4832039      -7.6932608      -7.4939191      -7.2937631      -7.0905885      -6.8850502      -6.6798557      -6.4743875     
0.004           6.6936672       6.6997774       6.7205201       6.7648893       6.8310209       6.905632        6.9966361       7.1356877       7.2490659       7.354225        7.3732069       7.3177572       7.2815125       7.259467        7.2451729       7.2348246       7.2304007       7.2283571       7.2277207       7.2300748       7.2339911       7.2411961       7.2530467       7.2679544       7.2951317       7.3339655       7.3723078       7.3860015       7.2785964       7.1415025       7.0121297       6.9076564       6.826581        6.772156        6.7260344       6.7016417       6.6429353       6.6543499       6.6799554       6.7194198       6.7648815       6.8536136       6.922863        7.0190784       7.1130866       7.1732662       7.2097946       7.2321293       7.2269789       7.2249998       7.2259676       7.2223807       7.2210706       7.2212517       7.2213536       7.2228647       7.2259199       7.2289691       7.2330144       7.2346679       7.2352318       7.2407407       7.2166658       7.1798008       7.110607        7.0192296       6.9462742       6.8573484       6.7666817       6.7234314       6.6770748       6.6480507       7.1105406       7.0550829       7.000251        6.9075548       6.8037515       6.7302581       7.2319997       7.1798008       7.0723792       6.9442274       6.8313922       6.7169979       6.7577924       6.668661        6.6936672       6.6429353       6.7584834       6.6746934       7.2161881       7.1732662       7.0587309       6.9167465       6.8118241       6.7076563       7.1074119       7.0412216       6.9983964       6.892564        6.8053411       6.7192241       6.5471024       6.3266467       6.1885196       5.9808726       5.8419339       5.6299598       5.4891695       6.5275557       6.3429472       6.1482376       6.0110542       5.8131026       5.6611691       5.4501495       6.5149968       6.3339422       6.1519084       5.9704369       5.8128334       5.6158884       5.4801787       6.5001415       6.3463849       6.1377941       5.9610292       5.8364146       5.6427638       5.443555        6.4914424       6.315947        6.1707776       5.9947008       5.8032586       5.6066566       5.4766477       6.5348546       6.359318        6.1773444       5.9801385       5.8056481       5.6369356       5.4692097       6.4951059       6.3280716       6.1523798       5.9803925       5.8067419       5.6340257       5.4611165      