# Probe 0 (0.075 0 0)
# Probe 1 (0.0738606 0.0130236 0)
# Probe 2 (0.0704769 0.0256515 0)
# Probe 3 (0.0649519 0.0375 0)
# Probe 4 (0.0574533 0.0482091 0)
# Probe 5 (0.0482091 0.0574533 0)
# Probe 6 (0.0375 0.0649519 0)
# Probe 7 (0.0256515 0.0704769 0)
# Probe 8 (0.0130236 0.0738606 0)
# Probe 9 (0 0.075 0)
# Probe 10 (-0.0130236 0.0738606 0)
# Probe 11 (-0.0256515 0.0704769 0)
# Probe 12 (-0.0375 0.0649519 0)
# Probe 13 (-0.0482091 0.0574533 0)
# Probe 14 (-0.0574533 0.0482091 0)
# Probe 15 (-0.0649519 0.0375 0)
# Probe 16 (-0.0704769 0.0256515 0)
# Probe 17 (-0.0738606 0.0130236 0)
# Probe 18 (-0.075 0 0)
# Probe 19 (-0.0738606 -0.0130236 0)
# Probe 20 (-0.0704769 -0.0256515 0)
# Probe 21 (-0.0649519 -0.0375 0)
# Probe 22 (-0.0574533 -0.0482091 0)
# Probe 23 (-0.0482091 -0.0574533 0)
# Probe 24 (-0.0375 -0.0649519 0)
# Probe 25 (-0.0256515 -0.0704769 0)
# Probe 26 (-0.0130236 -0.0738606 0)
# Probe 27 (0 -0.075 0)
# Probe 28 (0.0130236 -0.0738606 0)
# Probe 29 (0.0256515 -0.0704769 0)
# Probe 30 (0.0375 -0.0649519 0)
# Probe 31 (0.0482091 -0.0574533 0)
# Probe 32 (0.0574533 -0.0482091 0)
# Probe 33 (0.0649519 -0.0375 0)
# Probe 34 (0.0704769 -0.0256515 0)
# Probe 35 (0.0738606 -0.0130236 0)
# Probe 36 (0.1 0 0)
# Probe 37 (0.0984808 0.0173648 0)
# Probe 38 (0.0939693 0.034202 0)
# Probe 39 (0.0866025 0.05 0)
# Probe 40 (0.0766044 0.0642788 0)
# Probe 41 (0.0642788 0.0766044 0)
# Probe 42 (0.05 0.0866025 0)
# Probe 43 (0.034202 0.0939693 0)
# Probe 44 (0.0173648 0.0984808 0)
# Probe 45 (0 0.1 0)
# Probe 46 (-0.0173648 0.0984808 0)
# Probe 47 (-0.034202 0.0939693 0)
# Probe 48 (-0.05 0.0866025 0)
# Probe 49 (-0.0642788 0.0766044 0)
# Probe 50 (-0.0766044 0.0642788 0)
# Probe 51 (-0.0866025 0.05 0)
# Probe 52 (-0.0939693 0.034202 0)
# Probe 53 (-0.0984808 0.0173648 0)
# Probe 54 (-0.1 0 0)
# Probe 55 (-0.0984808 -0.0173648 0)
# Probe 56 (-0.0939693 -0.034202 0)
# Probe 57 (-0.0866025 -0.05 0)
# Probe 58 (-0.0766044 -0.0642788 0)
# Probe 59 (-0.0642788 -0.0766044 0)
# Probe 60 (-0.05 -0.0866025 0)
# Probe 61 (-0.034202 -0.0939693 0)
# Probe 62 (-0.0173648 -0.0984808 0)
# Probe 63 (0 -0.1 0)
# Probe 64 (0.0173648 -0.0984808 0)
# Probe 65 (0.034202 -0.0939693 0)
# Probe 66 (0.05 -0.0866025 0)
# Probe 67 (0.0642788 -0.0766044 0)
# Probe 68 (0.0766044 -0.0642788 0)
# Probe 69 (0.0866025 -0.05 0)
# Probe 70 (0.0939693 -0.034202 0)
# Probe 71 (0.0984808 -0.0173648 0)
# Probe 72 (-0.025 -0.15 0)
# Probe 73 (0 -0.15 0)
# Probe 74 (0.025 -0.15 0)
# Probe 75 (0.05 -0.15 0)
# Probe 76 (0.075 -0.15 0)
# Probe 77 (0.1 -0.15 0)
# Probe 78 (-0.025 -0.1 0)
# Probe 79 (0 -0.1 0)
# Probe 80 (0.025 -0.1 0)
# Probe 81 (0.05 -0.1 0)
# Probe 82 (0.075 -0.1 0)
# Probe 83 (0.1 -0.1 0)
# Probe 84 (0.075 -0.05 0)
# Probe 85 (0.1 -0.05 0)
# Probe 86 (0.075 0 0)
# Probe 87 (0.1 0 0)
# Probe 88 (0.075 0.05 0)
# Probe 89 (0.1 0.05 0)
# Probe 90 (-0.025 0.1 0)
# Probe 91 (0 0.1 0)
# Probe 92 (0.025 0.1 0)
# Probe 93 (0.05 0.1 0)
# Probe 94 (0.075 0.1 0)
# Probe 95 (0.1 0.1 0)
# Probe 96 (-0.025 0.15 0)
# Probe 97 (0 0.15 0)
# Probe 98 (0.025 0.15 0)
# Probe 99 (0.05 0.15 0)
# Probe 100 (0.075 0.15 0)
# Probe 101 (0.1 0.15 0)
# Probe 102 (0.15 -0.15 0)
# Probe 103 (0.2 -0.15 0)
# Probe 104 (0.25 -0.15 0)
# Probe 105 (0.3 -0.15 0)
# Probe 106 (0.35 -0.15 0)
# Probe 107 (0.4 -0.15 0)
# Probe 108 (0.45 -0.15 0)
# Probe 109 (0.15 -0.1 0)
# Probe 110 (0.2 -0.1 0)
# Probe 111 (0.25 -0.1 0)
# Probe 112 (0.3 -0.1 0)
# Probe 113 (0.35 -0.1 0)
# Probe 114 (0.4 -0.1 0)
# Probe 115 (0.45 -0.1 0)
# Probe 116 (0.15 -0.05 0)
# Probe 117 (0.2 -0.05 0)
# Probe 118 (0.25 -0.05 0)
# Probe 119 (0.3 -0.05 0)
# Probe 120 (0.35 -0.05 0)
# Probe 121 (0.4 -0.05 0)
# Probe 122 (0.45 -0.05 0)
# Probe 123 (0.15 0 0)
# Probe 124 (0.2 0 0)
# Probe 125 (0.25 0 0)
# Probe 126 (0.3 0 0)
# Probe 127 (0.35 0 0)
# Probe 128 (0.4 0 0)
# Probe 129 (0.45 0 0)
# Probe 130 (0.15 0.05 0)
# Probe 131 (0.2 0.05 0)
# Probe 132 (0.25 0.05 0)
# Probe 133 (0.3 0.05 0)
# Probe 134 (0.35 0.05 0)
# Probe 135 (0.4 0.05 0)
# Probe 136 (0.45 0.05 0)
# Probe 137 (0.15 0.1 0)
# Probe 138 (0.2 0.1 0)
# Probe 139 (0.25 0.1 0)
# Probe 140 (0.3 0.1 0)
# Probe 141 (0.35 0.1 0)
# Probe 142 (0.4 0.1 0)
# Probe 143 (0.45 0.1 0)
# Probe 144 (0.15 0.15 0)
# Probe 145 (0.2 0.15 0)
# Probe 146 (0.25 0.15 0)
# Probe 147 (0.3 0.15 0)
# Probe 148 (0.35 0.15 0)
# Probe 149 (0.4 0.15 0)
# Probe 150 (0.45 0.15 0)
# Time          0               1               2               3               4               5               6               7               8               9               10              11              12              13              14              15              16              17              18              19              20              21              22              23              24              25              26              27              28              29              30              31              32              33              34              35              36              37              38              39              40              41              42              43              44              45              46              47              48              49              50              51              52              53              54              55              56              57              58              59              60              61              62              63              64              65              66              67              68              69              70              71              72              73              74              75              76              77              78              79              80              81              82              83              84              85              86              87              88              89              90              91              92              93              94              95              96              97              98              99              100             101             102             103             104             105             106             107             108             109             110             111             112             113             114             115             116             117             118             119             120             121             122             123             124             125             126             127             128             129             130             131             132             133             134             135             136             137             138             139             140             141             142             143             144             145             146             147             148             149             150            
0               (0 0 0)         (0 0 0)         (0 0 0)         (0 0 0)         (0 0 0)         (0 0 0)         (0 0 0)         (0 0 0)         (0 0 0)         (0 0 0)         (0 0 0)         (0 0 0)         (0 0 0)         (0 0 0)         (0 0 0)         (0 0 0)         (0 0 0)         (0 0 0)         (0 0 0)         (0 0 0)         (0 0 0)         (0 0 0)         (0 0 0)         (0 0 0)         (0 0 0)         (0 0 0)         (0 0 0)         (0 0 0)         (0 0 0)         (0 0 0)         (0 0 0)         (0 0 0)         (0 0 0)         (0 0 0)         (0 0 0)         (0 0 0)         (0 0 0)         (0 0 0)         (0 0 0)         (0 0 0)         (0 0 0)         (0 0 0)         (0 0 0)         (0 0 0)         (0 0 0)         (0 0 0)         (0 0 0)         (0 0 0)         (0 0 0)         (0 0 0)         (0 0 0)         (0 0 0)         (0 0 0)         (0 0 0)         (0 0 0)         (0 0 0)         (0 0 0)         (0 0 0)         (0 0 0)         (0 0 0)         (0 0 0)         (0 0 0)         (0 0 0)         (0 0 0)         (0 0 0)         (0 0 0)         (0 0 0)         (0 0 0)         (0 0 0)         (0 0 0)         (0 0 0)         (0 0 0)         (0 0 0)         (0 0 0)         (0 0 0)         (0 0 0)         (0 0 0)         (0 0 0)         (0 0 0)         (0 0 0)         (0 0 0)         (0 0 0)         (0 0 0)         (0 0 0)         (0 0 0)         (0 0 0)         (0 0 0)         (0 0 0)         (0 0 0)         (0 0 0)         (0 0 0)         (0 0 0)         (0 0 0)         (0 0 0)         (0 0 0)         (0 0 0)         (0 0 0)         (0 0 0)         (0 0 0)         (0 0 0)         (0 0 0)         (0 0 0)         (0 0 0)         (0 0 0)         (0 0 0)         (0 0 0)         (0 0 0)         (0 0 0)         (0 0 0)         (0 0 0)         (0 0 0)         (0 0 0)         (0 0 0)         (0 0 0)         (0 0 0)         (0 0 0)         (0 0 0)         (0 0 0)         (0 0 0)         (0 0 0)         (0 0 0)         (0 0 0)         (0 0 0)         (0 0 0)         (0 0 0)         (0 0 0)         (0 0 0)         (0 0 0)         (0 0 0)         (0 0 0)         (0 0 0)         (0 0 0)         (0 0 0)         (0 0 0)         (0 0 0)         (0 0 0)         (0 0 0)         (0 0 0)         (0 0 0)         (0 0 0)         (0 0 0)         (0 0 0)         (0 0 0)         (0 0 0)         (0 0 0)         (0 0 0)         (0 0 0)         (0 0 0)         (0 0 0)         (0 0 0)         (0 0 0)        
0.0005          (0.02165016 0.001073894 1.1567753e-16) (0.025926658 -0.010802484 0) (0.032978985 -0.018289565 0) (0.050186923 -0.030687778 -3.0048007e-18) (0.064229072 -0.029733252 8.4095143e-18) (0.081807652 -0.024893144 3.341803e-17) (0.10580077 0.0046968714 -1.2249824e-16) (0.12898151 0.035682287 0) (0.10765169 0.083812086 0) (0.03968374 0.11743738 0) (-0.020297163 0.11408079 4.1019619e-17) (-0.045967109 0.052067707 0) (-0.040803353 0.019327343 0) (-0.029448706 0.0053209802 5.9219071e-17) (-0.020610832 0.0020749902 -1.6543795e-16) (-0.011206866 -0.0009135667 3.887149e-17) (-0.0078602987 -0.0018229691 -4.9783436e-17) (-0.0049630706 -0.00094939249 0) (-0.004311213 0.0006683747 0) (-0.0054908891 0.0026908856 9.5035889e-17) (-0.0085121061 0.0028800618 1.0049092e-16) (-0.013338944 0.00092590551 4.1217478e-17) (-0.020925826 0.00063010042 -1.1494942e-17) (-0.029298317 -0.0060562516 0) (-0.043119544 -0.026376628 6.2932858e-17) (-0.05369358 -0.0508745 -5.9877203e-17) (-0.035945696 -0.10864681 0) (0.04172575 -0.13572367 1.2871461e-16) (0.11968532 -0.10255477 3.1172446e-17) (0.12064183 -0.035139064 -4.6194375e-17) (0.10645604 0.0082803089 5.7065894e-17) (0.076177804 0.027014324 4.4386429e-17) (0.056866377 0.033596349 -4.6739617e-17) (0.048300793 0.034374879 9.1647536e-20) (0.039963073 0.024246068 -3.9806515e-17) (0.027350129 0.012845827 5.2014348e-20) (0.039584009 0.0014684374 0) (0.040455391 -0.0044850879 0) (0.038166154 -0.012492271 -4.3477856e-17) (0.05090373 -0.012963968 9.2694283e-17) (0.061472686 -0.013269509 -2.0218683e-17) (0.070758277 -0.0014726881 -1.7206229e-17) (0.071800909 0.007808108 0) (0.071027747 0.025562832 -5.2381534e-17) (0.057986307 0.045573267 3.822871e-17) (0.030452018 0.052301993 7.3854524e-17) (0.014597543 0.052837672 1.8699388e-16) (-0.0057649892 0.03938911 0) (-0.010625966 0.025243023 5.3883257e-17) (-0.010769751 0.01804616 0) (-0.011579716 0.0091166373 5.4811329e-17) (-0.0081955607 0.0048494038 -1.5930604e-16) (-0.0068549174 0.0017456909 -1.0643952e-16) (-0.0057575083 0.0012445466 1.9553241e-16) (-0.00517091 0.00086661142 1.444735e-16) (-0.005602258 0.00022630322 -9.256578e-17) (-0.0070618547 -0.00056810643 9.0722898e-17) (-0.0089234277 -0.0040557877 0) (-0.010935238 -0.0081732761 8.6436708e-17) (-0.010815043 -0.014533002 5.3707143e-17) (-0.011807294 -0.02045984 7.3901536e-18) (0.00071266094 -0.038906535 -6.3000131e-17) (0.011112994 -0.047737884 1.1336674e-16) (0.039350974 -0.050528282 -7.7744525e-17) (0.063825477 -0.041324981 0) (0.072317848 -0.021661052 -4.3870891e-17) (0.075567149 -0.0057492216 0) (0.06886572 0.0034617125 -3.3833225e-18) (0.059168194 0.011832113 1.7216441e-19) (0.051648012 0.013751508 7.3203944e-17) (0.043936852 0.010253428 -5.0774543e-18) (0.042631537 0.0057178605 0) (0.024459267 -0.016437095 5.6813156e-17) (0.031781571 -0.013099275 -1.6397474e-16) (0.043646068 -0.014949311 -8.1495278e-17) (0.047000194 -0.018277854 -5.3555794e-17) (0.046088792 -0.0030020784 -1.8533658e-17) (0.047502817 -0.0058267957 0) (0.0115151 -0.052140336 -6.2641936e-17) (0.039350974 -0.050528282 -7.7744525e-17) (0.06749599 -0.033471993 8.1405941e-17) (0.063400759 -0.010423334 5.7285724e-17) (0.059902388 -0.0026576725 4.6520723e-17) (0.056226037 0.0012968435 9.0462042e-17) (0.054600754 0.015709684 0) (0.052133056 0.0096219949 0) (0.02165016 0.001073894 1.1567753e-16) (0.039584009 0.0014684374 0) (0.054409893 -0.019695272 0) (0.051254954 -0.0055683539 0) (0.0060170946 0.046236856 6.111413e-17) (0.030452018 0.052301993 7.3854524e-17) (0.06286903 0.034069414 -1.937248e-19) (0.066986594 0.011873741 -7.4407187e-17) (0.060759484 0.0028292612 -7.6847763e-17) (0.056041319 0.0038666351 -3.8051736e-17) (0.021617773 0.019692066 6.7042669e-17) (0.029984041 0.02009806 -1.1986115e-16) (0.036736959 0.016541266 -2.2508852e-19) (0.048175712 0.012322606 0) (0.051315633 0.0056207823 0) (0.046945404 0.0054466162 1.6597143e-16) (0.05202615 0.00039263469 -1.0561548e-16) (0.049745502 2.471084e-06 0) (0.050141707 0.00030630987 1.3351659e-18) (0.050023435 0.00012974049 -5.0126344e-18) (0.05007265 0.00026997219 0) (0.049985169 2.6981083e-05 0) (0.050014465 3.4482734e-05 -1.3804456e-16) (0.051498715 2.6105858e-05 0) (0.050212019 0.0018834452 1.0821124e-16) (0.050421189 0.00087748665 8.9588627e-17) (0.049993875 0.00010778228 -2.6328307e-18) (0.050789116 -0.0031581617 0) (0.049957703 0.00062531714 6.2683586e-17) (0.050048968 5.1293171e-05 6.9787236e-17) (0.050987761 0.0059639223 5.4021316e-17) (0.050086702 0.00096506655 8.464057e-17) (0.050544709 0.0014007467 6.2230373e-17) (0.049708206 8.1083822e-05 -8.105963e-17) (0.049709495 -0.00020766888 -1.0024903e-16) (0.050223307 -0.00010276125 7.5553202e-17) (0.050096961 -5.3668101e-06 -7.1358952e-17) (0.0477529 0.0014867307 -1.5462276e-16) (0.049078595 -0.00010057281 7.8743201e-17) (0.049646738 -0.00022121116 5.4072626e-17) (0.049880626 -0.00017497935 -1.0010569e-16) (0.049885339 -7.4401791e-05 -8.3077723e-17) (0.050026264 -4.4702665e-05 -2.3943071e-16) (0.050070332 -5.9127804e-05 -2.2217781e-16) (0.049225235 -0.00037548374 0) (0.056252527 -0.0061756961 0) (0.049856548 3.2854227e-05 0) (0.049987008 0.00058272445 -4.8042664e-17) (0.050055966 0.00016878062 6.5609302e-19) (0.049933944 4.8634453e-06 1.5648686e-19) (0.049590171 -0.00011485889 -8.1741583e-17) (0.053600931 0.0038491211 0) (0.050098735 -4.9453128e-05 -1.1678493e-16) (0.049444 -0.00023987536 -5.3697905e-17) (0.048860519 -0.0020035783 1.3489916e-16) (0.049768404 7.8113318e-05 0) (0.050063778 8.3708494e-07 2.4287789e-18) (0.049265965 -0.00012348727 0) (0.04983749 0.00061265447 1.8081997e-16) (0.056736262 -0.0058950137 -5.8727198e-17) (0.050301206 7.9344792e-05 0) (0.049899817 -8.014757e-05 -4.5706749e-19) (0.049948695 3.9788096e-05 1.530518e-16) (0.049820633 -1.2595172e-05 7.3925842e-17) (0.04999847 0.00016896993 7.3733614e-17)
0.001           (0.03758369 0.001102285 6.4200195e-18) (0.04325009 -0.014984016 0) (0.054746223 -0.023579136 0) (0.075235639 -0.037998572 -1.6347727e-19) (0.092961276 -0.036470322 4.6697315e-19) (0.1158863 -0.030290703 1.8581897e-18) (0.14624829 0.0052730801 -6.2284303e-18) (0.17392773 0.050249271 0) (0.14345889 0.11416647 0) (0.057672549 0.15795651 0) (-0.023236472 0.15214508 1.7025224e-18) (-0.061419665 0.071648013 0) (-0.054369602 0.028799206 0) (-0.040425524 0.0093924622 2.5286336e-18) (-0.028572982 0.003988094 -7.1436865e-18) (-0.016124306 -0.0005627411 1.7201306e-18) (-0.01143243 -0.0016863822 -2.29007e-18) (-0.0077705211 -0.00060687451 0) (-0.0069674912 0.0011932578 0) (-0.0084886283 0.0033882968 4.377346e-18) (-0.012393243 0.003555906 4.6456237e-18) (-0.01877693 0.0010275388 1.8437242e-18) (-0.029175335 -0.0001038432 -5.1158018e-19) (-0.041039562 -0.009479584 0) (-0.058670955 -0.037564084 2.6787103e-18) (-0.069976463 -0.072541887 -2.4827672e-18) (-0.04240657 -0.14343097 0) (0.058410923 -0.18324578 5.3304473e-18) (0.15675138 -0.13292394 1.4125708e-18) (0.16583639 -0.051250431 -2.1339166e-18) (0.15022421 0.008880484 2.8395335e-18) (0.10978351 0.03102587 2.5272778e-18) (0.084827028 0.040183805 -2.7279006e-18) (0.074229123 0.043449493 6.3211839e-21) (0.062312876 0.03252884 -2.148126e-18) (0.045985651 0.017759557 9.7962242e-21) (0.063071986 0.0016623063 0) (0.063964803 -0.0054688071 0) (0.06016125 -0.014982655 -2.1860245e-18) (0.078097464 -0.01515789 4.5871955e-18) (0.090259252 -0.014871531 -9.8036477e-19) (0.10145541 0.0013990099 -8.3915585e-19) (0.10299166 0.014036675 0) (0.099879398 0.03787742 -2.3795972e-18) (0.081559614 0.064914039 1.6630779e-18) (0.043320226 0.074395348 3.1055802e-18) (0.02127633 0.074219783 7.7307653e-18) (-0.0065777587 0.056364536 0) (-0.013944968 0.036741528 2.2111713e-18) (-0.014664956 0.025948453 0) (-0.016315058 0.01364825 2.2683022e-18) (-0.01180657 0.0075563614 -6.7037987e-18) (-0.0098504121 0.0031830555 -4.4394667e-18) (-0.0085229786 0.0021501607 8.2298176e-18) (-0.0078641224 0.0013776987 6.1966671e-18) (-0.0084390457 0.00017477427 -3.9596521e-18) (-0.01041447 -0.0011876112 3.8712193e-18) (-0.012905615 -0.0061241913 0) (-0.015500858 -0.012337407 3.5573734e-18) (-0.015023537 -0.021363395 2.217449e-18) (-0.015524324 -0.029381568 3.0589631e-19) (0.0013588584 -0.054667181 -2.6086649e-18) (0.016625101 -0.066920904 4.6575047e-18) (0.055485875 -0.071353877 -3.2744756e-18) (0.089860227 -0.059571442 0) (0.10248096 -0.032977098 -1.9579392e-18) (0.10666932 -0.011340247 0) (0.099278504 0.0009558942 -1.6192426e-19) (0.088556149 0.013088722 3.8474509e-21) (0.078995321 0.01654415 3.5839459e-18) (0.068249843 0.012867953 -2.5380364e-19) (0.066857387 0.0072921365 0) (0.035153041 -0.023486602 2.3731062e-18) (0.046195761 -0.018873324 -6.9066294e-18) (0.063286849 -0.021514603 -3.4680858e-18) (0.06722869 -0.025819478 -2.3483146e-18) (0.067170939 -0.0057719242 -8.2196968e-19) (0.069346959 -0.0089496139 0) (0.01666329 -0.072513975 -2.6105213e-18) (0.055485875 -0.071353877 -3.2744756e-18) (0.095320611 -0.048930802 3.5717444e-18) (0.090393886 -0.018357953 2.5827331e-18) (0.086460177 -0.0067728395 2.1469326e-18) (0.083233637 -0.00023025388 4.2114338e-18) (0.082457283 0.018833123 0) (0.079008382 0.011713799 0) (0.03758369 0.001102285 6.4200195e-18) (0.063071986 0.0016623063 0) (0.081270864 -0.02333341 0) (0.078079931 -0.0054547112 0) (0.0094092367 0.065250721 2.5207512e-18) (0.043320226 0.074395348 3.1055802e-18) (0.088443728 0.049457988 1.2952576e-20) (0.095728317 0.019739883 -3.3708902e-18) (0.087918624 0.0066639672 -3.5777153e-18) (0.082328233 0.0071531404 -1.7650495e-18) (0.031364763 0.027926958 2.7663756e-18) (0.04322179 0.028304177 -5.0263185e-18) (0.052458865 0.024798824 5.6155112e-21) (0.069396014 0.018474611 0) (0.075241424 0.0093856376 0) (0.068596422 0.0086901075 7.5224928e-18) (0.076878745 -6.1934755e-06 -4.832194e-18) (0.075288889 -0.00041675608 0) (0.075948717 0.00026552529 6.2416848e-20) (0.075910361 0.00014254896 -2.3503578e-19) (0.075905992 0.00037443146 0) (0.075950152 -4.9475178e-05 0) (0.076050097 1.484423e-05 -6.4945629e-18) (0.07714831 -0.0010262455 0) (0.075875315 0.0024575764 5.0695016e-18) (0.076429573 0.0010417151 4.2024438e-18) (0.076149461 -6.3567061e-05 -1.2362946e-19) (0.076451901 -0.0043082815 0) (0.076087265 0.00084772837 2.9525488e-18) (0.076147426 6.4127898e-05 3.2849019e-18) (0.076863358 0.0071191856 2.5645406e-18) (0.076155042 0.00081231478 4.0004758e-18) (0.076482733 0.0016552107 2.9363987e-18) (0.075705093 9.1916673e-06 -3.8190037e-18) (0.075418271 -0.00031938266 -4.7208219e-18) (0.076419193 -5.5525767e-05 3.5596083e-18) (0.076218718 3.5064769e-05 -3.3598006e-18) (0.073545977 0.0019239528 -7.397986e-18) (0.074896963 -0.00011292498 3.7329092e-18) (0.075473262 -0.00031668056 2.5519043e-18) (0.075848429 -0.00023789498 -4.7178792e-18) (0.075847646 -9.1153262e-05 -3.9131706e-18) (0.076071621 1.3989277e-05 -1.127181e-17) (0.076122881 -2.4344686e-05 -1.0454837e-17) (0.074965237 0.00044197433 0) (0.08413778 -0.0084632932 0) (0.075978769 0.00029477725 0) (0.075804157 0.00088920999 -2.2645529e-18) (0.076177944 0.00027346304 3.0880738e-20) (0.076017631 0.00010141674 8.2898975e-21) (0.075471738 5.0821612e-05 -3.8397098e-18) (0.079033111 0.0065665542 0) (0.07576553 0.00057083712 -5.4611247e-18) (0.075268946 -0.00018174146 -2.518258e-18) (0.073968859 -0.0024911952 6.339979e-18) (0.075755277 0.00022282283 0) (0.076184119 2.1299338e-05 1.1409718e-19) (0.074995499 -0.00038350097 0) (0.075037629 0.0015690429 8.3465905e-18) (0.084149829 -0.0080826375 -2.7254106e-18) (0.076237848 0.00020607179 0) (0.075679444 -7.8922986e-06 -1.974375e-20) (0.075888485 0.00015171873 7.1849956e-18) (0.075735346 -1.0219075e-05 3.4712952e-18) (0.075944785 0.00020662745 3.4633965e-18)
0.0015          (0.036892686 0.0013947209 -3.1311808e-17) (0.039254957 -0.011512029 0) (0.049468645 -0.019871283 0) (0.062822094 -0.028638627 8.1400779e-19) (0.079314368 -0.027955124 -2.3864133e-18) (0.096981883 -0.023715565 -9.7371091e-18) (0.11902883 -0.0010426926 3.3714437e-17) (0.1426131 0.042043931 0) (0.11728087 0.098161067 0) (0.050416572 0.13989219 0) (-0.023305598 0.12599532 -1.0423304e-17) (-0.054071075 0.057517596 0) (-0.044744191 0.023623028 0) (-0.032479767 0.0083635902 -1.4799429e-17) (-0.022509439 0.0031462324 4.1546102e-17) (-0.013641428 -0.00047210497 -9.9527203e-18) (-0.0094619939 -0.0010377049 1.320784e-17) (-0.0069262865 -0.00033721677 0) (-0.0060251077 0.001100711 0) (-0.0072535245 0.0025660953 -2.5177241e-17) (-0.010136951 0.0028204204 -2.6775213e-17) (-0.015070787 0.0015518314 -1.0666921e-17) (-0.023702325 -0.00046993623 2.9769518e-18) (-0.03409505 -0.0074262615 0) (-0.047461292 -0.027983668 -1.5827649e-17) (-0.058095126 -0.060974796 1.4866899e-17) (-0.031173672 -0.11292792 0) (0.047024718 -0.15699335 -3.2664501e-17) (0.12358184 -0.10545394 -8.3932886e-18) (0.14235671 -0.043544674 1.2076093e-17) (0.12685956 0.0063553976 -1.5374732e-17) (0.095810323 0.022435703 -1.323925e-17) (0.075682473 0.029982191 1.3840279e-17) (0.063785438 0.033019869 -2.6927921e-20) (0.051436142 0.025321383 1.0534789e-17) (0.041933982 0.014472887 -1.8420927e-20) (0.05637777 0.0014055176 0) (0.056353641 -0.004354394 0) (0.056408723 -0.010729158 1.0881506e-17) (0.068600201 -0.011313117 -2.3087764e-17) (0.075133684 -0.009984344 5.011702e-18) (0.085453777 0.0012373408 4.4032615e-18) (0.088334494 0.01294409 0) (0.084212596 0.032953359 1.3024243e-17) (0.06889599 0.055404592 -9.4191481e-18) (0.037902942 0.064284499 -1.7875709e-17) (0.01729535 0.06217627 -4.4858473e-17) (-0.0054213793 0.047941658 0) (-0.011485378 0.031234097 -1.2869678e-17) (-0.011768076 0.020423897 0) (-0.013785484 0.011483258 -1.3131802e-17) (-0.010400026 0.0063523767 3.8691339e-17) (-0.0081327892 0.0033561964 2.5578915e-17) (-0.0071210846 0.0020196269 -4.7359118e-17) (-0.006724249 0.0011991051 -3.564274e-17) (-0.0071904606 9.5649809e-05 2.2780477e-17) (-0.0087936647 -0.0011325468 -2.2291879e-17) (-0.010729601 -0.0047107795 0) (-0.012841656 -0.010389401 -2.0575032e-17) (-0.012588392 -0.018064426 -1.2852093e-17) (-0.011585838 -0.0255918 -1.77647e-18) (-0.0012489063 -0.045773371 1.5151502e-17) (0.013750779 -0.053583685 -2.6988214e-17) (0.046402182 -0.061320324 1.8820242e-17) (0.075657624 -0.051303425 0) (0.08778858 -0.029921847 1.0746709e-17) (0.091146441 -0.010977888 0) (0.084481029 -0.00034645027 8.4988994e-19) (0.077185006 0.0092514844 -3.794269e-20) (0.069590073 0.012354299 -1.8045361e-17) (0.060342587 0.010247714 1.261753e-18) (0.059046842 0.0058700463 0) (0.029391366 -0.02037161 -1.3388945e-17) (0.039639572 -0.016209312 3.8583687e-17) (0.054149086 -0.017689622 1.9181908e-17) (0.056236191 -0.018570793 1.2681561e-17) (0.057549385 -0.0067307417 4.3833056e-18) (0.058993293 -0.0052554732 0) (0.010970272 -0.059345313 1.5068239e-17) (0.046402182 -0.061320324 1.8820242e-17) (0.080541682 -0.042352639 -1.9876942e-17) (0.077427686 -0.018317882 -1.3923725e-17) (0.073655283 -0.0073205374 -1.1315907e-17) (0.071572217 -0.0012763936 -2.1812112e-17) (0.070683139 0.016283616 0) (0.066883671 0.0089110234 0) (0.036892686 0.0013947209 -3.1311808e-17) (0.05637777 0.0014055176 0) (0.069917698 -0.016789494 0) (0.068418288 -0.0048004784 0) (0.0075324898 0.054806178 -1.4652735e-17) (0.037902942 0.064284499 -1.7875709e-17) (0.074526815 0.042665345 3.3341653e-20) (0.081688096 0.018185811 1.8141873e-17) (0.074675226 0.0066931154 1.8822325e-17) (0.069565646 0.0041026387 9.1507225e-18) (0.027234421 0.023129296 -1.5699308e-17) (0.036366143 0.021287499 2.8196553e-17) (0.043726777 0.022254089 4.3799872e-20) (0.058042861 0.015819852 0) (0.065056251 0.0093888712 0) (0.058540525 0.0059392861 -3.9544432e-17) (0.063694734 -0.00077595044 2.4966636e-17) (0.06578196 -0.00039047891 0) (0.06621438 0.00016727991 -3.1582347e-19) (0.06627705 0.00011076791 1.1859528e-18) (0.066206778 0.00035557865 0) (0.066293416 -8.7747813e-05 0) (0.066412968 -1.5599842e-05 3.2663443e-17) (0.066928056 -0.0010416128 0) (0.065936917 0.0020500473 -2.5652965e-17) (0.066545745 0.00079403072 -2.1199676e-17) (0.066605714 -0.00028716243 6.2310037e-19) (0.065596657 -0.0013144496 0) (0.066587306 0.00052879943 -1.4825682e-17) (0.066528463 4.2382252e-05 -1.6514505e-17) (0.065408947 0.0030276964 -1.2944892e-17) (0.066510107 0.00049081023 -2.0168129e-17) (0.066281962 0.00049522422 -1.4782563e-17) (0.066225664 4.1612782e-05 1.9202462e-17) (0.065889376 -0.000317943 2.374905e-17) (0.066752705 3.0572648e-05 -1.7884359e-17) (0.066584535 5.6238668e-05 1.6889894e-17) (0.064445184 0.0014521578 3.6996637e-17) (0.065457994 -7.3012882e-05 -1.8754992e-17) (0.0658757 -0.0002445445 -1.2834903e-17) (0.066222253 -0.00015728962 2.3727019e-17) (0.066238637 -6.0323405e-05 1.9681226e-17) (0.066427229 5.1194528e-05 5.66935e-17) (0.066468384 2.0456457e-05 5.2595146e-17) (0.065429967 0.00084909577 0) (0.070632086 -0.0047170836 0) (0.06656216 0.00026857427 0) (0.066015615 0.0007970353 1.1387025e-17) (0.066552926 0.0002350734 -1.5536297e-19) (0.066410044 0.00013419986 -3.7543242e-20) (0.065862013 8.4954696e-05 1.9357475e-17) (0.06417887 0.0049284032 0) (0.066059667 0.00085034286 2.7684848e-17) (0.065729797 7.2879145e-05 1.2727923e-17) (0.064221887 -0.00066607075 -3.1884465e-17) (0.066225088 0.00025426282 0) (0.066570963 5.3009538e-05 -5.7486855e-19) (0.065735115 -0.00040185212 0) (0.065256532 0.0014595835 -4.280366e-17) (0.070515334 -0.0044856439 1.3929625e-17) (0.066621514 0.00010324008 0) (0.065966212 3.6792054e-05 1.0730781e-19) (0.066245608 0.00017439633 -3.6212291e-17) (0.066148423 -5.7771676e-06 -1.7492009e-17) (0.066293306 0.00011649586 -1.7446179e-17)