# y+ ()         
# Time          	patch           	min             	max             	average         
0               	TOP	0.00000000e+00	0.00000000e+00	0.00000000e+00
0               	BOTTOM	0.00000000e+00	0.00000000e+00	0.00000000e+00
0               	CYLINDER	0.00000000e+00	0.00000000e+00	0.00000000e+00
0               	JET1	1.50482085e-01	5.17439862e-01	3.78047184e-01
0               	JET2	1.34350720e-01	5.23026301e-01	3.86090400e-01
